<?xml version="1.0"?>
<VTKFile type="PolyData" version="0.1" byte_order="LittleEndian" header_type="UInt32" compressor="vtkZLibDataCompressor">
  <PolyData>
    <Piece NumberOfPoints="16" NumberOfVerts="0" NumberOfLines="0" NumberOfStrips="0" NumberOfPolys="12">
      <PointData Normals="Normals" TCoords="TCoords">
        <DataArray type="Float32" Name="Normals" NumberOfComponents="3" format="ascii" RangeMin="1" RangeMax="1">
          -1 0 0 -1 0 0
          -1 0 0 -1 0 0
          1 0 0 1 0 0
          1 0 0 1 0 0
          -1 0 0 -1 0 0
          -1 0 0 -1 0 0
          1 0 0 1 0 0
          1 0 0 1 0 0
        </DataArray>
        <DataArray type="Float32" Name="TCoords" NumberOfComponents="2" format="ascii" RangeMin="2.8284271247" RangeMax="7.7781745931">
          -4.5 -4.5 5.5 -4.5 5.5 5.5
          -4.5 5.5 4.5 -4.5 4.5 5.5
          -5.5 5.5 -5.5 -4.5 -2 -2
          3 -2 3 3 -2 3
          2 -2 2 3 -3 3
          -3 -2
        </DataArray>
      </PointData>
      <CellData>
      </CellData>
      <Points>
        <DataArray type="Float32" Name="Points" NumberOfComponents="3" format="ascii" RangeMin="4.3301270189" RangeMax="8.6602540378">
          -5 -5 -5 -5 -5 5
          -5 5 5 -5 5 -5
          5 -5 -5 5 5 -5
          5 5 5 5 -5 5
          2.5 -2.5 -2.5 2.5 -2.5 2.5
          2.5 2.5 2.5 2.5 2.5 -2.5
          7.5 -2.5 -2.5 7.5 2.5 -2.5
          7.5 2.5 2.5 7.5 -2.5 2.5
        </DataArray>
      </Points>
      <Verts>
        <DataArray type="Int32" Name="connectivity" format="ascii" RangeMin="1e+299" RangeMax="-1e+299">
        </DataArray>
        <DataArray type="Int32" Name="offsets" format="ascii" RangeMin="1e+299" RangeMax="-1e+299">
        </DataArray>
      </Verts>
      <Lines>
        <DataArray type="Int32" Name="connectivity" format="ascii" RangeMin="1e+299" RangeMax="-1e+299">
        </DataArray>
        <DataArray type="Int32" Name="offsets" format="ascii" RangeMin="1e+299" RangeMax="-1e+299">
        </DataArray>
      </Lines>
      <Strips>
        <DataArray type="Int32" Name="connectivity" format="ascii" RangeMin="1e+299" RangeMax="-1e+299">
        </DataArray>
        <DataArray type="Int32" Name="offsets" format="ascii" RangeMin="1e+299" RangeMax="-1e+299">
        </DataArray>
      </Strips>
      <Polys>
        <DataArray type="Int32" Name="connectivity" format="ascii" RangeMin="0" RangeMax="15">
          0 1 2 3 4 5
          6 7 0 4 7 1
          3 2 6 5 0 3
          5 4 1 7 6 2
          8 9 10 11 12 13
          14 15 8 12 15 9
          11 10 14 13 8 11
          13 12 9 15 14 10
        </DataArray>
        <DataArray type="Int32" Name="offsets" format="ascii" RangeMin="4" RangeMax="48">
          4 8 12 16 20 24
          28 32 36 40 44 48
        </DataArray>
      </Polys>
    </Piece>
  </PolyData>
</VTKFile>
